 TITLE = "LSFD-U"
 VARIABLES = "X", "Y", "TAG"
 ZONE N =           68 E =         106 , F=FEPOINT  ET=QUADRILATERAL
      1.0000000000000000      1.0000000000000000       0
      1.0000000000000000      0.0000000000000000       0
      0.0000000000000000      0.0000000000000000       0
      0.0000000000000000      1.0000000000000000       0
      0.8571428657000000      0.0000000000000000       0
      0.7142857312999999      0.0000000000000000       0
      0.5714285374000000      0.0000000000000000       0
      0.4285714030000000      0.0000000000000000       0
      0.2857142687000000      0.0000000000000000       0
      0.1428571343000000      0.0000000000000000       0
      0.1428571492000000      1.0000000000000000       0
      0.2857142985000000      1.0000000000000000       0
      0.4285714626000000      1.0000000000000000       0
      0.5714285970000000      1.0000000000000000       0
      0.7142857312999999      1.0000000000000000       0
      0.8571428657000000      1.0000000000000000       0
      0.0000000000000000      0.1428571492000000       0
      0.0000000000000000      0.2857142985000000       0
      0.0000000000000000      0.4285714626000000       0
      0.0000000000000000      0.5714285970000000       0
      0.0000000000000000      0.7142857312999999       0
      0.0000000000000000      0.8571428657000000       0
      1.0000000000000000      0.8571428657000000       0
      1.0000000000000000      0.7142857312999999       0
      1.0000000000000000      0.5714285374000000       0
      1.0000000000000000      0.4285714030000000       0
      1.0000000000000000      0.2857142687000000       0
      1.0000000000000000      0.1428571343000000       0
      0.8724788937000000      0.6460350884000000       0
      0.7474513085000000      0.5721075948000000       0
      0.6225337125000000      0.4985101234000000       0
      0.4972277048000000      0.4260876512000000       0
      0.3732083837000000      0.3546285893000000       0
      0.2519386542000000      0.2803025999000000       0
      0.1301253928000000      0.1992484869000000       0
      0.8729318085000000      0.4993962888000000       0
      0.8707866507000001      0.3510515330000000       0
      0.7451831436000000      0.4239135057000000       0
      0.8655151566000000      0.1936373176000000       0
      0.7380302303000000      0.2699392311000000       0
      0.6161375690999999      0.3480966727000000       0
      0.7249173786000001      0.1090368677000000       0
      0.4884054293000000      0.2771097422000000       0
      0.6016730416000000      0.1890045988000000       0
      0.1266992975000000      0.3534326619000000       0
      0.2572499192000000      0.1314153394000000       0
      0.3675245822000000      0.2114810827000000       0
      0.2512485144000000      0.4267944684000000       0
      0.1266137147000000      0.5001585125000000       0
      0.3620358556000000      0.0945483002500000       0
      0.3761372816000000      0.5001476995000000       0
      0.2540503969000000      0.5751313111000000       0
      0.1292287481000000      0.6490777116000001       0
      0.4699398082000000      0.1286906207000000       0
      0.8693656332000000      0.8004913920000000       0
      0.7474358281000000      0.7193413892000000       0
      0.6261795522000000      0.6447722275000000       0
      0.5020063929000000      0.5730185895000000       0
      0.3830319857000000      0.6508830258000000       0
      0.2619048468000000      0.7299627485000000       0
      0.1347200301000000      0.8067292887000000       0
      0.2750682550000000      0.8909575271000000       0
      0.5110986013000000      0.7224015914000000       0
      0.3980599607000000      0.8107094536000000       0
      0.7424835732000000      0.8684801125000000       0
      0.6320843711000000      0.7882440487000000       0
      0.6377933770999999      0.9053551980000000       0
      0.5298393950000000      0.8711183819000000       0
          24          29          25          25
          18          17          35          35
          32          43          41          41
          35          34          45          45
          35          45          18          18
          26          37          27          27
          41          40          38          38
          32          41          31          31
          34          35          46          46
          40          41          44          44
          40          44          42          42
          26          25          36          36
          29          30          36          36
          27          39          28          28
          39          37          40          40
          46          47          34          34
          33          47          43          43
          19          49          20          20
          37          36          38          38
          31          38          30          30
           9           8          50          50
          47          46          50          50
          49          52          53          53
          20          53          21          21
          40          42          39          39
          47          50          54          54
          43          54          44          44
          30          57          31          31
          32          51          33          33
          48          51          52          52
           2          28           5           5
          39          42           5           5
           9          46          10          10
          35          17          10          10
          24          55          29          29
          30          29          56          56
          33          48          34          34
          49          45          48          48
          60          61          53          53
          21          61          22          22
           8           7          54          54
          61          60          62          62
          58          59          51          51
          60          52          59          59
           7           6          42          42
          42          44           7           7
          62          11          61          61
           4          22          11          11
          58          63          59          59
          32          31          58          58
          32          58          51          51
          60          59          64          64
          60          64          62          62
          15          14          67          67
          66          65          67          67
          65          66          56          56
          57          66          63          63
          56          55          65          65
          14          13          68          68
          23          16          55          55
          15          65          16          16
          62          64          13          13
          13          12          62          62
          67          68          66          66
          64          63          68          68
          43          32          33          33
          18          45          19          19
          37          26          36          36
          41          38          31          31
          44          41          43          43
          36          25          29          29
          39          27          37          37
          40          37          38          38
          34          47          33          33
          49          19          45          45
          38          36          30          30
           9          50          46          46
          52          49          48          48
          53          20          49          49
          47          54          43          43
          30          56          57          57
          51          48          33          33
           5          28          39          39
           6           5          42          42
          10          46          35          35
          17           3          10          10
          55          24          23          23
          56          29          55          55
          48          45          34          34
          60          53          52          52
          61          21          53          53
          54          50           8           8
          59          52          51          51
           7          44          54          54
          12          11          62          62
          11          22          61          61
          63          58          57          57
          58          31          57          57
          64          59          63          63
          15          67          65          65
          56          66          57          57
          68          67          14          14
          23           1          16          16
          16          65          55          55
          13          64          68          68
          66          68          63          63
